[Molden Format]
[Atoms] AU
   C     1    6     -1.2535938360    -1.9731184626     2.0519744132
   C     2    6     -0.5195978059    -2.2499689891     4.5628117603
   C     3    6     -0.6823164416     0.2424775446     0.7316606595
   C     4    6      0.7935123124    -0.3150804391     5.7801619038
   C     5    6      0.6475064133     2.1688623276     1.9485119153
   C     6    6      1.3748336004     1.8907362361     4.4660861355
   H     7    1     -0.9793171163    -3.9869144110     5.5782768072
   H     8    1      2.4087121374     3.4110283528     5.4047092546
   H     9    1      1.3611935582    -0.5294849704     7.7527429283
   H    10    1      1.0929053802     3.8807008500     0.8894849049
   C    11    6     -1.4619323468     0.5179844759    -2.0257235681
   N    12    7     -1.5327876227     3.1508338712    -2.7791270841
   H    13    1     -1.8073062274     3.2900121902    -4.6780711561
   H    14    1     -3.0376123322     4.0046952208    -1.9320120563
   C    15    6      0.3729462347    -1.0123590933    -3.6324045084
   H    16    1     -3.2754078917    -0.5067912510    -2.2565724949
   O    17    8      1.8634109164     0.4182541869    -5.1020444097
   H    18    1      2.9284151301    -0.7748280955    -6.0075859856
   O    19    8      0.4704466471    -3.2888760870    -3.6088093897
   H    20    1     -2.2610785701    -3.4964813841     1.0912755151
[GTO]
    1  0
  s      9  0
      6665.0000000000         0.0006920002
      1000.0000000000         0.0053290014
       228.0000000000         0.0270770070
        64.7100000000         0.1017180264
        21.0600000000         0.2747400712
         7.4950000000         0.4485641162
         2.7970000000         0.2850740738
         0.5215000000         0.0152040039
         0.1596000000        -0.0031910008
  s      9  0
      6665.0000000000        -0.0001460001
      1000.0000000000        -0.0011540005
       228.0000000000        -0.0057250025
        64.7100000000        -0.0233120103
        21.0600000000        -0.0639550281
         7.4950000000        -0.1499810660
         2.7970000000        -0.1272620560
         0.5215000000         0.5445292395
         0.1596000000         0.5804962554
  s      1  0
         0.1596000000         1.0000000000
  p      4  0
         9.4390000000         0.0381090213
         2.0020000000         0.2094801169
         0.5456000000         0.5085572839
         0.1517000000         0.4688422617
  p      1  0
         0.1517000000         1.0000000000
  d      1  0
         0.5500000000         1.0000000000

    2  0
  s      9  0
      6665.0000000000         0.0006920002
      1000.0000000000         0.0053290014
       228.0000000000         0.0270770070
        64.7100000000         0.1017180264
        21.0600000000         0.2747400712
         7.4950000000         0.4485641162
         2.7970000000         0.2850740738
         0.5215000000         0.0152040039
         0.1596000000        -0.0031910008
  s      9  0
      6665.0000000000        -0.0001460001
      1000.0000000000        -0.0011540005
       228.0000000000        -0.0057250025
        64.7100000000        -0.0233120103
        21.0600000000        -0.0639550281
         7.4950000000        -0.1499810660
         2.7970000000        -0.1272620560
         0.5215000000         0.5445292395
         0.1596000000         0.5804962554
  s      1  0
         0.1596000000         1.0000000000
  p      4  0
         9.4390000000         0.0381090213
         2.0020000000         0.2094801169
         0.5456000000         0.5085572839
         0.1517000000         0.4688422617
  p      1  0
         0.1517000000         1.0000000000
  d      1  0
         0.5500000000         1.0000000000

    3  0
  s      9  0
      6665.0000000000         0.0006920002
      1000.0000000000         0.0053290014
       228.0000000000         0.0270770070
        64.7100000000         0.1017180264
        21.0600000000         0.2747400712
         7.4950000000         0.4485641162
         2.7970000000         0.2850740738
         0.5215000000         0.0152040039
         0.1596000000        -0.0031910008
  s      9  0
      6665.0000000000        -0.0001460001
      1000.0000000000        -0.0011540005
       228.0000000000        -0.0057250025
        64.7100000000        -0.0233120103
        21.0600000000        -0.0639550281
         7.4950000000        -0.1499810660
         2.7970000000        -0.1272620560
         0.5215000000         0.5445292395
         0.1596000000         0.5804962554
  s      1  0
         0.1596000000         1.0000000000
  p      4  0
         9.4390000000         0.0381090213
         2.0020000000         0.2094801169
         0.5456000000         0.5085572839
         0.1517000000         0.4688422617
  p      1  0
         0.1517000000         1.0000000000
  d      1  0
         0.5500000000         1.0000000000

    4  0
  s      9  0
      6665.0000000000         0.0006920002
      1000.0000000000         0.0053290014
       228.0000000000         0.0270770070
        64.7100000000         0.1017180264
        21.0600000000         0.2747400712
         7.4950000000         0.4485641162
         2.7970000000         0.2850740738
         0.5215000000         0.0152040039
         0.1596000000        -0.0031910008
  s      9  0
      6665.0000000000        -0.0001460001
      1000.0000000000        -0.0011540005
       228.0000000000        -0.0057250025
        64.7100000000        -0.0233120103
        21.0600000000        -0.0639550281
         7.4950000000        -0.1499810660
         2.7970000000        -0.1272620560
         0.5215000000         0.5445292395
         0.1596000000         0.5804962554
  s      1  0
         0.1596000000         1.0000000000
  p      4  0
         9.4390000000         0.0381090213
         2.0020000000         0.2094801169
         0.5456000000         0.5085572839
         0.1517000000         0.4688422617
  p      1  0
         0.1517000000         1.0000000000
  d      1  0
         0.5500000000         1.0000000000

    5  0
  s      9  0
      6665.0000000000         0.0006920002
      1000.0000000000         0.0053290014
       228.0000000000         0.0270770070
        64.7100000000         0.1017180264
        21.0600000000         0.2747400712
         7.4950000000         0.4485641162
         2.7970000000         0.2850740738
         0.5215000000         0.0152040039
         0.1596000000        -0.0031910008
  s      9  0
      6665.0000000000        -0.0001460001
      1000.0000000000        -0.0011540005
       228.0000000000        -0.0057250025
        64.7100000000        -0.0233120103
        21.0600000000        -0.0639550281
         7.4950000000        -0.1499810660
         2.7970000000        -0.1272620560
         0.5215000000         0.5445292395
         0.1596000000         0.5804962554
  s      1  0
         0.1596000000         1.0000000000
  p      4  0
         9.4390000000         0.0381090213
         2.0020000000         0.2094801169
         0.5456000000         0.5085572839
         0.1517000000         0.4688422617
  p      1  0
         0.1517000000         1.0000000000
  d      1  0
         0.5500000000         1.0000000000

    6  0
  s      9  0
      6665.0000000000         0.0006920002
      1000.0000000000         0.0053290014
       228.0000000000         0.0270770070
        64.7100000000         0.1017180264
        21.0600000000         0.2747400712
         7.4950000000         0.4485641162
         2.7970000000         0.2850740738
         0.5215000000         0.0152040039
         0.1596000000        -0.0031910008
  s      9  0
      6665.0000000000        -0.0001460001
      1000.0000000000        -0.0011540005
       228.0000000000        -0.0057250025
        64.7100000000        -0.0233120103
        21.0600000000        -0.0639550281
         7.4950000000        -0.1499810660
         2.7970000000        -0.1272620560
         0.5215000000         0.5445292395
         0.1596000000         0.5804962554
  s      1  0
         0.1596000000         1.0000000000
  p      4  0
         9.4390000000         0.0381090213
         2.0020000000         0.2094801169
         0.5456000000         0.5085572839
         0.1517000000         0.4688422617
  p      1  0
         0.1517000000         1.0000000000
  d      1  0
         0.5500000000         1.0000000000

    7  0
  s      4  0
        13.0100000000         0.0196849900
         1.9620000000         0.1379769298
         0.4446000000         0.4781477569
         0.1220000000         0.5012397451
  s      1  0
         0.1220000000         1.0000000000
  p      1  0
         0.7270000000         1.0000000000

    8  0
  s      4  0
        13.0100000000         0.0196849900
         1.9620000000         0.1379769298
         0.4446000000         0.4781477569
         0.1220000000         0.5012397451
  s      1  0
         0.1220000000         1.0000000000
  p      1  0
         0.7270000000         1.0000000000

    9  0
  s      4  0
        13.0100000000         0.0196849900
         1.9620000000         0.1379769298
         0.4446000000         0.4781477569
         0.1220000000         0.5012397451
  s      1  0
         0.1220000000         1.0000000000
  p      1  0
         0.7270000000         1.0000000000

   10  0
  s      4  0
        13.0100000000         0.0196849900
         1.9620000000         0.1379769298
         0.4446000000         0.4781477569
         0.1220000000         0.5012397451
  s      1  0
         0.1220000000         1.0000000000
  p      1  0
         0.7270000000         1.0000000000

   11  0
  s      9  0
      6665.0000000000         0.0006920002
      1000.0000000000         0.0053290014
       228.0000000000         0.0270770070
        64.7100000000         0.1017180264
        21.0600000000         0.2747400712
         7.4950000000         0.4485641162
         2.7970000000         0.2850740738
         0.5215000000         0.0152040039
         0.1596000000        -0.0031910008
  s      9  0
      6665.0000000000        -0.0001460001
      1000.0000000000        -0.0011540005
       228.0000000000        -0.0057250025
        64.7100000000        -0.0233120103
        21.0600000000        -0.0639550281
         7.4950000000        -0.1499810660
         2.7970000000        -0.1272620560
         0.5215000000         0.5445292395
         0.1596000000         0.5804962554
  s      1  0
         0.1596000000         1.0000000000
  p      4  0
         9.4390000000         0.0381090213
         2.0020000000         0.2094801169
         0.5456000000         0.5085572839
         0.1517000000         0.4688422617
  p      1  0
         0.1517000000         1.0000000000
  d      1  0
         0.5500000000         1.0000000000

   12  0
  s      9  0
      9046.0000000000         0.0007000000
      1357.0000000000         0.0053890003
       309.3000000000         0.0274060014
        87.7300000000         0.1032070051
        28.5600000000         0.2787230138
        10.2100000000         0.4485400222
         3.8380000000         0.2782380137
         0.7466000000         0.0154400008
         0.2248000000        -0.0028640001
  s      9  0
      9046.0000000000        -0.0001530000
      1357.0000000000        -0.0012079999
       309.3000000000        -0.0059919996
        87.7300000000        -0.0245439982
        28.5600000000        -0.0674589950
        10.2100000000        -0.1580779882
         3.8380000000        -0.1218309909
         0.7466000000         0.5490029590
         0.2248000000         0.5788149568
  s      1  0
         0.2248000000         1.0000000000
  p      4  0
        13.5500000000         0.0399190123
         2.9170000000         0.2171690671
         0.7973000000         0.5103191576
         0.2185000000         0.4622141427
  p      1  0
         0.2185000000         1.0000000000
  d      1  0
         0.8170000000         1.0000000000

   13  0
  s      4  0
        13.0100000000         0.0196849900
         1.9620000000         0.1379769298
         0.4446000000         0.4781477569
         0.1220000000         0.5012397451
  s      1  0
         0.1220000000         1.0000000000
  p      1  0
         0.7270000000         1.0000000000

   14  0
  s      4  0
        13.0100000000         0.0196849900
         1.9620000000         0.1379769298
         0.4446000000         0.4781477569
         0.1220000000         0.5012397451
  s      1  0
         0.1220000000         1.0000000000
  p      1  0
         0.7270000000         1.0000000000

   15  0
  s      9  0
      6665.0000000000         0.0006920002
      1000.0000000000         0.0053290014
       228.0000000000         0.0270770070
        64.7100000000         0.1017180264
        21.0600000000         0.2747400712
         7.4950000000         0.4485641162
         2.7970000000         0.2850740738
         0.5215000000         0.0152040039
         0.1596000000        -0.0031910008
  s      9  0
      6665.0000000000        -0.0001460001
      1000.0000000000        -0.0011540005
       228.0000000000        -0.0057250025
        64.7100000000        -0.0233120103
        21.0600000000        -0.0639550281
         7.4950000000        -0.1499810660
         2.7970000000        -0.1272620560
         0.5215000000         0.5445292395
         0.1596000000         0.5804962554
  s      1  0
         0.1596000000         1.0000000000
  p      4  0
         9.4390000000         0.0381090213
         2.0020000000         0.2094801169
         0.5456000000         0.5085572839
         0.1517000000         0.4688422617
  p      1  0
         0.1517000000         1.0000000000
  d      1  0
         0.5500000000         1.0000000000

   16  0
  s      4  0
        13.0100000000         0.0196849900
         1.9620000000         0.1379769298
         0.4446000000         0.4781477569
         0.1220000000         0.5012397451
  s      1  0
         0.1220000000         1.0000000000
  p      1  0
         0.7270000000         1.0000000000

   17  0
  s      9  0
     11720.0000000000         0.0007100003
      1759.0000000000         0.0054700019
       400.8000000000         0.0278370098
       113.7000000000         0.1048000369
        37.0300000000         0.2830620998
        13.2700000000         0.4487191582
         5.0250000000         0.2709520955
         1.0130000000         0.0154580054
         0.3023000000        -0.0025850009
  s      9  0
     11720.0000000000        -0.0001600000
      1759.0000000000        -0.0012630001
       400.8000000000        -0.0062670006
       113.7000000000        -0.0257160025
        37.0300000000        -0.0709240068
        13.2700000000        -0.1654110159
         5.0250000000        -0.1169550112
         1.0130000000         0.5573680536
         0.3023000000         0.5727590551
  s      1  0
         0.3023000000         1.0000000000
  p      4  0
        17.7000000000         0.0430179924
         3.8540000000         0.2289129597
         1.0460000000         0.5087279104
         0.2753000000         0.4605309189
  p      1  0
         0.2753000000         1.0000000000
  d      1  0
         1.1850000000         1.0000000000

   18  0
  s      4  0
        13.0100000000         0.0196849900
         1.9620000000         0.1379769298
         0.4446000000         0.4781477569
         0.1220000000         0.5012397451
  s      1  0
         0.1220000000         1.0000000000
  p      1  0
         0.7270000000         1.0000000000

   19  0
  s      9  0
     11720.0000000000         0.0007100003
      1759.0000000000         0.0054700019
       400.8000000000         0.0278370098
       113.7000000000         0.1048000369
        37.0300000000         0.2830620998
        13.2700000000         0.4487191582
         5.0250000000         0.2709520955
         1.0130000000         0.0154580054
         0.3023000000        -0.0025850009
  s      9  0
     11720.0000000000        -0.0001600000
      1759.0000000000        -0.0012630001
       400.8000000000        -0.0062670006
       113.7000000000        -0.0257160025
        37.0300000000        -0.0709240068
        13.2700000000        -0.1654110159
         5.0250000000        -0.1169550112
         1.0130000000         0.5573680536
         0.3023000000         0.5727590551
  s      1  0
         0.3023000000         1.0000000000
  p      4  0
        17.7000000000         0.0430179924
         3.8540000000         0.2289129597
         1.0460000000         0.5087279104
         0.2753000000         0.4605309189
  p      1  0
         0.2753000000         1.0000000000
  d      1  0
         1.1850000000         1.0000000000

   20  0
  s      4  0
        13.0100000000         0.0196849900
         1.9620000000         0.1379769298
         0.4446000000         0.4781477569
         0.1220000000         0.5012397451
  s      1  0
         0.1220000000         1.0000000000
  p      1  0
         0.7270000000         1.0000000000

[5D]
[9G]
[MO]
Sym= a    
Ene=  -0.19269323622167E+02
Spin= Alpha
Occup=       2.00000000000000
     1   -0.0000007855975020
     2   -0.0000009141698394
     3    0.0000026854784099
     4   -0.0000005896229704
     5   -0.0000010715103517
     6    0.0000000773682579
     7    0.0000008276819058
     8    0.0000018954524910
     9    0.0000029430897152
    10    0.0000000795223537
    11    0.0000012247650256
    12   -0.0000010654542095
    13   -0.0000000062195124
    14   -0.0000000045910812
    15   -0.0000000967306858
    16   -0.0000008813013808
    17    0.0000022544783500
    18    0.0000017441431691
    19    0.0000007631619404
    20   -0.0000002416319189
    21    0.0000023030923734
    22   -0.0000006569695526
    23   -0.0000002660858767
    24   -0.0000001977555543
    25    0.0000000164874143
    26    0.0000001242292799
    27   -0.0000004767250210
    28    0.0000000293799683
    29    0.0000004439553047
    30   -0.0000016738480488
    31    0.0000037763983449
    32    0.0000041665167295
    33    0.0000013601058070
    34    0.0000006693764212
    35   -0.0000040303451418
    36   -0.0000003872558079
    37   -0.0000026072643520
    38   -0.0000006519316317
    39    0.0000000854056734
    40    0.0000003350408845
    41    0.0000004448718791
    42   -0.0000005435183493
    43   -0.0000004285988394
    44   -0.0000007098355618
    45    0.0000013045938954
    46    0.0000004528344505
    47    0.0000001552391955
    48    0.0000002923499955
    49    0.0000006297852753
    50    0.0000017328908468
    51   -0.0000001496920760
    52    0.0000002695981535
    53   -0.0000000422406302
    54   -0.0000003733415357
    55   -0.0000005012034546
    56   -0.0000002349328050
    57   -0.0000001958874591
    58   -0.0000008964118579
    59    0.0000019378575106
    60    0.0000000763967857
    61    0.0000012996348516
    62   -0.0000002025816149
    63   -0.0000002251622063
    64    0.0000006565383215
    65   -0.0000030183002279
    66    0.0000010044994610
    67   -0.0000009177974857
    68   -0.0000005564220666
    69   -0.0000008241441669
    70   -0.0000009179270277
    71   -0.0000003153757451
    72   -0.0000007981417752
    73   -0.0000009084893375
    74   -0.0000004460086255
    75    0.0000009540875708
    76   -0.0000003805196833
    77   -0.0000002115099388
    78   -0.0000001377796125
    79    0.0000030279019690
    80   -0.0000001911041905
    81   -0.0000001435371464
    82   -0.0000000135738194
    83   -0.0000007196156151
    84   -0.0000007771686019
    85    0.0000002975032451
    86   -0.0000000558927154
    87    0.0000000874916560
    88    0.0000000799898804
    89    0.0000000831442617
    90   -0.0000002674696686
    91    0.0000001826116608
    92   -0.0000000011837882
    93    0.0000002664443599
    94   -0.0000003883260738
    95   -0.0000001582384681
    96    0.0000001930371901
    97    0.0000000456053318
    98    0.0000001497983912
    99   -0.0000000753981324
   100    0.0000001232492635
   101   -0.0000000600971466
   102   -0.0000002449239719
   103    0.0000013959133375
   104   -0.0000005834163231
   105    0.0000015761061982
   106    0.0000058120584936
   107   -0.0000214495213036
   108   -0.0000004163656518
   109   -0.0000071782984502
   110    0.0000040141982834
   111    0.0000034499023175
   112   -0.0000080356167878
   113    0.0000126270345833
   114   -0.0000014967864464
   115    0.0000033371889913
   116   -0.0000022291678308
   117    0.0000032504363124
   118    0.0000026224239349
   119    0.0000003604923961
   120    0.0000000761776558
   121   -0.0000000149796363
   122   -0.0000000526672868
   123    0.0000002623507707
   124   -0.0000005925443792
   125    0.0000008815929630
   126   -0.0000010990176961
   127   -0.0000007285459558
   128   -0.0000002080623321
   129    0.0000002989761842
   130   -0.0000003705504935
   131   -0.0000003964980275
   132    0.0000002963581580
   133   -0.0000015407791247
   134    0.0000010655873555
   135   -0.0000000625832777
   136    0.0000004266544923
   137   -0.0000002928373300
   138   -0.0000002717641444
   139   -0.0000002514512082
   140   -0.0000002858463521
   141   -0.0000000563022479
   142    0.0000001550885431
   143    0.0000027590308778
   144    0.0000072910674758
   145    0.0000087067842451
   146    0.0000003114887107
   147   -0.0000269508239985
   148    0.0000249578123703
   149   -0.0000019051552124
   150    0.0000356803602018
   151   -0.0000284680761030
   152    0.0000451253717482
   153    0.0000052467607275
   154   -0.0000253857338711
   155   -0.0000342678191991
   156    0.0000046503833391
   157    0.0000029481777626
   158   -0.0000012901985915
   159   -0.0000000504276899
   160   -0.0000016357765862
   161    0.0000003508750976
   162   -0.0000000449676099
   163   -0.0000000648504434
   164    0.0000002202895170
   165    0.0000022201083042
   166    0.0000049537321401
   167   -0.0000070369596712
   168    0.0000057584551062
   169    0.0000349415038678
   170   -0.0000405012110060
   171   -0.0000036769315263
   172   -0.0000016769204922
   173   -0.0000004764980140
   174    0.0000046995561016
   175   -0.0000068814856091
   176    0.0000029133225058
   177    0.0000043131598299
   178   -0.0000007112451316
   179   -0.0000013088630250
   180    0.0000048108479063
   181    0.0000020733430777
   182    0.0000030947350186
   183   -0.0000044026813300
   184    0.0000012457280369
   185    0.0000219425905467
   186   -0.0000092976648042
   187   -0.0000016409279270
   188   -0.0000044342406415
   189    0.0000059585927773
   190   -0.0000112700887552
   191   -0.0000054340557520
   192    0.0000025619741925
   193    0.0000115425907730
   194   -0.0000053018064066
   195    0.0000002666688408
   196   -0.0000001568634234
   197    0.0000000765135747
   198   -0.0000002369351992
   199    0.0000003260005838
