[Molden Format]
[Atoms] AU
   C     1    6     -1.2535938360    -1.9731184626     2.0519744132
   C     2    6     -0.5195978059    -2.2499689891     4.5628117603
   C     3    6     -0.6823164416     0.2424775446     0.7316606595
   C     4    6      0.7935123124    -0.3150804391     5.7801619038
   C     5    6      0.6475064133     2.1688623276     1.9485119153
   C     6    6      1.3748336004     1.8907362361     4.4660861355
   H     7    1     -0.9793171163    -3.9869144110     5.5782768072
   H     8    1      2.4087121374     3.4110283528     5.4047092546
   H     9    1      1.3611935582    -0.5294849704     7.7527429283
   H    10    1      1.0929053802     3.8807008500     0.8894849049
   C    11    6     -1.4619323468     0.5179844759    -2.0257235681
   N    12    7     -1.5327876227     3.1508338712    -2.7791270841
   H    13    1     -1.8073062274     3.2900121902    -4.6780711561
   H    14    1     -3.0376123322     4.0046952208    -1.9320120563
   C    15    6      0.3729462347    -1.0123590933    -3.6324045084
   H    16    1     -3.2754078917    -0.5067912510    -2.2565724949
   O    17    8      1.8634109164     0.4182541869    -5.1020444097
   H    18    1      2.9284151301    -0.7748280955    -6.0075859856
   O    19    8      0.4704466471    -3.2888760870    -3.6088093897
   H    20    1     -2.2610785701    -3.4964813841     1.0912755151
[GTO]
    1  0
  s      9  0
      6665.0000000000         0.0006920002
      1000.0000000000         0.0053290014
       228.0000000000         0.0270770070
        64.7100000000         0.1017180264
        21.0600000000         0.2747400712
         7.4950000000         0.4485641162
         2.7970000000         0.2850740738
         0.5215000000         0.0152040039
         0.1596000000        -0.0031910008
  s      9  0
      6665.0000000000        -0.0001460001
      1000.0000000000        -0.0011540005
       228.0000000000        -0.0057250025
        64.7100000000        -0.0233120103
        21.0600000000        -0.0639550281
         7.4950000000        -0.1499810660
         2.7970000000        -0.1272620560
         0.5215000000         0.5445292395
         0.1596000000         0.5804962554
  s      1  0
         0.1596000000         1.0000000000
  p      4  0
         9.4390000000         0.0381090213
         2.0020000000         0.2094801169
         0.5456000000         0.5085572839
         0.1517000000         0.4688422617
  p      1  0
         0.1517000000         1.0000000000
  d      1  0
         0.5500000000         1.0000000000

    2  0
  s      9  0
      6665.0000000000         0.0006920002
      1000.0000000000         0.0053290014
       228.0000000000         0.0270770070
        64.7100000000         0.1017180264
        21.0600000000         0.2747400712
         7.4950000000         0.4485641162
         2.7970000000         0.2850740738
         0.5215000000         0.0152040039
         0.1596000000        -0.0031910008
  s      9  0
      6665.0000000000        -0.0001460001
      1000.0000000000        -0.0011540005
       228.0000000000        -0.0057250025
        64.7100000000        -0.0233120103
        21.0600000000        -0.0639550281
         7.4950000000        -0.1499810660
         2.7970000000        -0.1272620560
         0.5215000000         0.5445292395
         0.1596000000         0.5804962554
  s      1  0
         0.1596000000         1.0000000000
  p      4  0
         9.4390000000         0.0381090213
         2.0020000000         0.2094801169
         0.5456000000         0.5085572839
         0.1517000000         0.4688422617
  p      1  0
         0.1517000000         1.0000000000
  d      1  0
         0.5500000000         1.0000000000

    3  0
  s      9  0
      6665.0000000000         0.0006920002
      1000.0000000000         0.0053290014
       228.0000000000         0.0270770070
        64.7100000000         0.1017180264
        21.0600000000         0.2747400712
         7.4950000000         0.4485641162
         2.7970000000         0.2850740738
         0.5215000000         0.0152040039
         0.1596000000        -0.0031910008
  s      9  0
      6665.0000000000        -0.0001460001
      1000.0000000000        -0.0011540005
       228.0000000000        -0.0057250025
        64.7100000000        -0.0233120103
        21.0600000000        -0.0639550281
         7.4950000000        -0.1499810660
         2.7970000000        -0.1272620560
         0.5215000000         0.5445292395
         0.1596000000         0.5804962554
  s      1  0
         0.1596000000         1.0000000000
  p      4  0
         9.4390000000         0.0381090213
         2.0020000000         0.2094801169
         0.5456000000         0.5085572839
         0.1517000000         0.4688422617
  p      1  0
         0.1517000000         1.0000000000
  d      1  0
         0.5500000000         1.0000000000

    4  0
  s      9  0
      6665.0000000000         0.0006920002
      1000.0000000000         0.0053290014
       228.0000000000         0.0270770070
        64.7100000000         0.1017180264
        21.0600000000         0.2747400712
         7.4950000000         0.4485641162
         2.7970000000         0.2850740738
         0.5215000000         0.0152040039
         0.1596000000        -0.0031910008
  s      9  0
      6665.0000000000        -0.0001460001
      1000.0000000000        -0.0011540005
       228.0000000000        -0.0057250025
        64.7100000000        -0.0233120103
        21.0600000000        -0.0639550281
         7.4950000000        -0.1499810660
         2.7970000000        -0.1272620560
         0.5215000000         0.5445292395
         0.1596000000         0.5804962554
  s      1  0
         0.1596000000         1.0000000000
  p      4  0
         9.4390000000         0.0381090213
         2.0020000000         0.2094801169
         0.5456000000         0.5085572839
         0.1517000000         0.4688422617
  p      1  0
         0.1517000000         1.0000000000
  d      1  0
         0.5500000000         1.0000000000

    5  0
  s      9  0
      6665.0000000000         0.0006920002
      1000.0000000000         0.0053290014
       228.0000000000         0.0270770070
        64.7100000000         0.1017180264
        21.0600000000         0.2747400712
         7.4950000000         0.4485641162
         2.7970000000         0.2850740738
         0.5215000000         0.0152040039
         0.1596000000        -0.0031910008
  s      9  0
      6665.0000000000        -0.0001460001
      1000.0000000000        -0.0011540005
       228.0000000000        -0.0057250025
        64.7100000000        -0.0233120103
        21.0600000000        -0.0639550281
         7.4950000000        -0.1499810660
         2.7970000000        -0.1272620560
         0.5215000000         0.5445292395
         0.1596000000         0.5804962554
  s      1  0
         0.1596000000         1.0000000000
  p      4  0
         9.4390000000         0.0381090213
         2.0020000000         0.2094801169
         0.5456000000         0.5085572839
         0.1517000000         0.4688422617
  p      1  0
         0.1517000000         1.0000000000
  d      1  0
         0.5500000000         1.0000000000

    6  0
  s      9  0
      6665.0000000000         0.0006920002
      1000.0000000000         0.0053290014
       228.0000000000         0.0270770070
        64.7100000000         0.1017180264
        21.0600000000         0.2747400712
         7.4950000000         0.4485641162
         2.7970000000         0.2850740738
         0.5215000000         0.0152040039
         0.1596000000        -0.0031910008
  s      9  0
      6665.0000000000        -0.0001460001
      1000.0000000000        -0.0011540005
       228.0000000000        -0.0057250025
        64.7100000000        -0.0233120103
        21.0600000000        -0.0639550281
         7.4950000000        -0.1499810660
         2.7970000000        -0.1272620560
         0.5215000000         0.5445292395
         0.1596000000         0.5804962554
  s      1  0
         0.1596000000         1.0000000000
  p      4  0
         9.4390000000         0.0381090213
         2.0020000000         0.2094801169
         0.5456000000         0.5085572839
         0.1517000000         0.4688422617
  p      1  0
         0.1517000000         1.0000000000
  d      1  0
         0.5500000000         1.0000000000

    7  0
  s      4  0
        13.0100000000         0.0196849900
         1.9620000000         0.1379769298
         0.4446000000         0.4781477569
         0.1220000000         0.5012397451
  s      1  0
         0.1220000000         1.0000000000
  p      1  0
         0.7270000000         1.0000000000

    8  0
  s      4  0
        13.0100000000         0.0196849900
         1.9620000000         0.1379769298
         0.4446000000         0.4781477569
         0.1220000000         0.5012397451
  s      1  0
         0.1220000000         1.0000000000
  p      1  0
         0.7270000000         1.0000000000

    9  0
  s      4  0
        13.0100000000         0.0196849900
         1.9620000000         0.1379769298
         0.4446000000         0.4781477569
         0.1220000000         0.5012397451
  s      1  0
         0.1220000000         1.0000000000
  p      1  0
         0.7270000000         1.0000000000

   10  0
  s      4  0
        13.0100000000         0.0196849900
         1.9620000000         0.1379769298
         0.4446000000         0.4781477569
         0.1220000000         0.5012397451
  s      1  0
         0.1220000000         1.0000000000
  p      1  0
         0.7270000000         1.0000000000

   11  0
  s      9  0
      6665.0000000000         0.0006920002
      1000.0000000000         0.0053290014
       228.0000000000         0.0270770070
        64.7100000000         0.1017180264
        21.0600000000         0.2747400712
         7.4950000000         0.4485641162
         2.7970000000         0.2850740738
         0.5215000000         0.0152040039
         0.1596000000        -0.0031910008
  s      9  0
      6665.0000000000        -0.0001460001
      1000.0000000000        -0.0011540005
       228.0000000000        -0.0057250025
        64.7100000000        -0.0233120103
        21.0600000000        -0.0639550281
         7.4950000000        -0.1499810660
         2.7970000000        -0.1272620560
         0.5215000000         0.5445292395
         0.1596000000         0.5804962554
  s      1  0
         0.1596000000         1.0000000000
  p      4  0
         9.4390000000         0.0381090213
         2.0020000000         0.2094801169
         0.5456000000         0.5085572839
         0.1517000000         0.4688422617
  p      1  0
         0.1517000000         1.0000000000
  d      1  0
         0.5500000000         1.0000000000

   12  0
  s      9  0
      9046.0000000000         0.0007000000
      1357.0000000000         0.0053890003
       309.3000000000         0.0274060014
        87.7300000000         0.1032070051
        28.5600000000         0.2787230138
        10.2100000000         0.4485400222
         3.8380000000         0.2782380137
         0.7466000000         0.0154400008
         0.2248000000        -0.0028640001
  s      9  0
      9046.0000000000        -0.0001530000
      1357.0000000000        -0.0012079999
       309.3000000000        -0.0059919996
        87.7300000000        -0.0245439982
        28.5600000000        -0.0674589950
        10.2100000000        -0.1580779882
         3.8380000000        -0.1218309909
         0.7466000000         0.5490029590
         0.2248000000         0.5788149568
  s      1  0
         0.2248000000         1.0000000000
  p      4  0
        13.5500000000         0.0399190123
         2.9170000000         0.2171690671
         0.7973000000         0.5103191576
         0.2185000000         0.4622141427
  p      1  0
         0.2185000000         1.0000000000
  d      1  0
         0.8170000000         1.0000000000

   13  0
  s      4  0
        13.0100000000         0.0196849900
         1.9620000000         0.1379769298
         0.4446000000         0.4781477569
         0.1220000000         0.5012397451
  s      1  0
         0.1220000000         1.0000000000
  p      1  0
         0.7270000000         1.0000000000

   14  0
  s      4  0
        13.0100000000         0.0196849900
         1.9620000000         0.1379769298
         0.4446000000         0.4781477569
         0.1220000000         0.5012397451
  s      1  0
         0.1220000000         1.0000000000
  p      1  0
         0.7270000000         1.0000000000

   15  0
  s      9  0
      6665.0000000000         0.0006920002
      1000.0000000000         0.0053290014
       228.0000000000         0.0270770070
        64.7100000000         0.1017180264
        21.0600000000         0.2747400712
         7.4950000000         0.4485641162
         2.7970000000         0.2850740738
         0.5215000000         0.0152040039
         0.1596000000        -0.0031910008
  s      9  0
      6665.0000000000        -0.0001460001
      1000.0000000000        -0.0011540005
       228.0000000000        -0.0057250025
        64.7100000000        -0.0233120103
        21.0600000000        -0.0639550281
         7.4950000000        -0.1499810660
         2.7970000000        -0.1272620560
         0.5215000000         0.5445292395
         0.1596000000         0.5804962554
  s      1  0
         0.1596000000         1.0000000000
  p      4  0
         9.4390000000         0.0381090213
         2.0020000000         0.2094801169
         0.5456000000         0.5085572839
         0.1517000000         0.4688422617
  p      1  0
         0.1517000000         1.0000000000
  d      1  0
         0.5500000000         1.0000000000

   16  0
  s      4  0
        13.0100000000         0.0196849900
         1.9620000000         0.1379769298
         0.4446000000         0.4781477569
         0.1220000000         0.5012397451
  s      1  0
         0.1220000000         1.0000000000
  p      1  0
         0.7270000000         1.0000000000

   17  0
  s      9  0
     11720.0000000000         0.0007100003
      1759.0000000000         0.0054700019
       400.8000000000         0.0278370098
       113.7000000000         0.1048000369
        37.0300000000         0.2830620998
        13.2700000000         0.4487191582
         5.0250000000         0.2709520955
         1.0130000000         0.0154580054
         0.3023000000        -0.0025850009
  s      9  0
     11720.0000000000        -0.0001600000
      1759.0000000000        -0.0012630001
       400.8000000000        -0.0062670006
       113.7000000000        -0.0257160025
        37.0300000000        -0.0709240068
        13.2700000000        -0.1654110159
         5.0250000000        -0.1169550112
         1.0130000000         0.5573680536
         0.3023000000         0.5727590551
  s      1  0
         0.3023000000         1.0000000000
  p      4  0
        17.7000000000         0.0430179924
         3.8540000000         0.2289129597
         1.0460000000         0.5087279104
         0.2753000000         0.4605309189
  p      1  0
         0.2753000000         1.0000000000
  d      1  0
         1.1850000000         1.0000000000

   18  0
  s      4  0
        13.0100000000         0.0196849900
         1.9620000000         0.1379769298
         0.4446000000         0.4781477569
         0.1220000000         0.5012397451
  s      1  0
         0.1220000000         1.0000000000
  p      1  0
         0.7270000000         1.0000000000

   19  0
  s      9  0
     11720.0000000000         0.0007100003
      1759.0000000000         0.0054700019
       400.8000000000         0.0278370098
       113.7000000000         0.1048000369
        37.0300000000         0.2830620998
        13.2700000000         0.4487191582
         5.0250000000         0.2709520955
         1.0130000000         0.0154580054
         0.3023000000        -0.0025850009
  s      9  0
     11720.0000000000        -0.0001600000
      1759.0000000000        -0.0012630001
       400.8000000000        -0.0062670006
       113.7000000000        -0.0257160025
        37.0300000000        -0.0709240068
        13.2700000000        -0.1654110159
         5.0250000000        -0.1169550112
         1.0130000000         0.5573680536
         0.3023000000         0.5727590551
  s      1  0
         0.3023000000         1.0000000000
  p      4  0
        17.7000000000         0.0430179924
         3.8540000000         0.2289129597
         1.0460000000         0.5087279104
         0.2753000000         0.4605309189
  p      1  0
         0.2753000000         1.0000000000
  d      1  0
         1.1850000000         1.0000000000

   20  0
  s      4  0
        13.0100000000         0.0196849900
         1.9620000000         0.1379769298
         0.4446000000         0.4781477569
         0.1220000000         0.5012397451
  s      1  0
         0.1220000000         1.0000000000
  p      1  0
         0.7270000000         1.0000000000

[5D]
[9G]
[MO]
Sym= a    
Ene=  -0.19269323622167E+02
Spin= Alpha
Occup=       2.00000000000000
     1    0.0000005785439458
     2    0.0000005260452095
     3   -0.0000017222842802
     4   -0.0000005072913752
     5   -0.0000008569256844
     6    0.0000000451149777
     7    0.0000005618607585
     8    0.0000014826450823
     9    0.0000023762229085
    10   -0.0000000267977005
    11   -0.0000001040484222
    12   -0.0000000478291785
    13   -0.0000008156775171
    14    0.0000009155327242
    15    0.0000000407957707
    16    0.0000005814992907
    17   -0.0000016221526788
    18    0.0000013479271910
    19    0.0000005738441758
    20   -0.0000001914379951
    21    0.0000017322767248
    22   -0.0000005323555443
    23   -0.0000001922553370
    24    0.0000003375480827
    25    0.0000001391881111
    26   -0.0000000565743294
    27    0.0000001066108024
    28   -0.0000000342766702
    29   -0.0000003961637596
    30    0.0000012092152521
    31   -0.0000030261327524
    32    0.0000032843086511
    33    0.0000009877862567
    34    0.0000004791544647
    35   -0.0000032698625451
    36   -0.0000005388419863
    37   -0.0000029215629662
    38   -0.0000003853250728
    39    0.0000004496091573
    40    0.0000004226044276
    41    0.0000003614014622
    42   -0.0000000216954033
    43    0.0000003126890495
    44    0.0000004751187054
    45   -0.0000009109335017
    46    0.0000003959427642
    47    0.0000001136186547
    48    0.0000002215521201
    49    0.0000005103975267
    50    0.0000013500173965
    51   -0.0000001463483042
    52    0.0000003760391762
    53   -0.0000002357426517
    54    0.0000001543166590
    55   -0.0000002857832696
    56   -0.0000000680251515
    57    0.0000001152923947
    58    0.0000006087181035
    59   -0.0000014745034477
    60    0.0000000569638101
    61    0.0000010428159590
    62   -0.0000001828122755
    63   -0.0000001256291296
    64    0.0000004539079600
    65   -0.0000024592598647
    66    0.0000006539543395
    67   -0.0000008500313758
    68    0.0000007181799231
    69   -0.0000004109886476
    70   -0.0000007775033600
    71    0.0000002357383878
    72    0.0000005507510054
    73    0.0000007886861843
    74   -0.0000003792606226
    75    0.0000007526242700
    76   -0.0000003050150978
    77   -0.0000002025590501
    78   -0.0000001002094645
    79    0.0000024815518579
    80    0.0000005487101234
    81    0.0000001351859704
    82    0.0000005936423297
    83    0.0000000012774336
    84   -0.0000001438377300
    85   -0.0000002406659175
    86    0.0000000614861432
    87    0.0000000489519389
    88    0.0000000630388661
    89    0.0000000659930709
    90    0.0000002197047122
    91   -0.0000001430427352
    92   -0.0000000106954161
    93    0.0000002145200049
    94   -0.0000003181799124
    95    0.0000001253793261
    96   -0.0000001419985585
    97    0.0000000246914502
    98    0.0000001197712306
    99   -0.0000000608761443
   100   -0.0000001014504861
   101    0.0000000314684667
   102   -0.0000001857142501
   103    0.0000011146614663
   104   -0.0000004941441931
   105   -0.0000015086773337
   106   -0.0000047700102452
   107    0.0000156269300498
   108   -0.0000001740973062
   109   -0.0000058043649969
   110    0.0000029457357203
   111    0.0000021993432924
   112   -0.0000062172943994
   113    0.0000092267763876
   114   -0.0000025439398570
   115    0.0000009046328906
   116   -0.0000019048284252
   117   -0.0000014740624600
   118    0.0000026777174644
   119   -0.0000004051635084
   120   -0.0000004284558641
   121    0.0000011129357434
   122    0.0000000220326983
   123    0.0000002559641636
   124   -0.0000004856832265
   125    0.0000011686490075
   126   -0.0000007846302069
   127   -0.0000007841888146
   128    0.0000004848936137
   129    0.0000000698402613
   130   -0.0000001447863530
   131   -0.0000001565559496
   132    0.0000000577473986
   133    0.0000010391904996
   134   -0.0000008527280544
   135   -0.0000000428464146
   136    0.0000002662573437
   137   -0.0000001880190415
   138    0.0000003207589406
   139    0.0000001897323529
   140   -0.0000001964764769
   141   -0.0000000480912426
   142    0.0000000443532571
   143   -0.0000025000457345
   144   -0.0000061098879976
   145   -0.0000029610383701
   146   -0.0000012135625148
   147   -0.0000194625471049
   148    0.0000197593818070
   149   -0.0000008916239272
   150    0.0000282826467763
   151   -0.0000196760311279
   152    0.0000270893975232
   153   -0.0000350535759773
   154   -0.0000045270461414
   155   -0.0000207660121044
   156    0.0000034318751582
   157   -0.0000022367350727
   158    0.0000009380119458
   159   -0.0000000345751892
   160   -0.0000012974077736
   161    0.0000002173419254
   162   -0.0000001430977795
   163   -0.0000002595505869
   164    0.0000003438424167
   165   -0.0000269086236405
   166    0.0000051220284466
   167   -0.0000050432850929
   168   -0.0000013987730133
   169    0.0000246810259772
   170   -0.0000320715242944
   171   -0.0000038647700058
   172    0.0000029623423361
   173    0.0000046181702587
   174   -0.0000003568825731
   175   -0.0000029422973289
   176   -0.0000026924604473
   177   -0.0000036459178604
   178   -0.0000009219901403
   179   -0.0000009434534806
   180    0.0000045349896342
   181   -0.0000019785664845
   182   -0.0000031524909809
   183    0.0000045359740378
   184    0.0000003667850701
   185    0.0000172920174695
   186   -0.0000071241427280
   187   -0.0000019214742792
   188   -0.0000036633160647
   189    0.0000042532721331
   190   -0.0000096161319954
   191    0.0000087720146459
   192    0.0000039738824982
   193    0.0000020390258816
   194   -0.0000049402885249
   195   -0.0000002405224763
   196    0.0000001596982242
   197    0.0000000156964182
   198   -0.0000001849199181
   199    0.0000002445553489
