[Molden Format]
[Atoms] AU
   C     1    6     -1.2535938360    -1.9731184626     2.0519744132
   C     2    6     -0.5195978059    -2.2499689891     4.5628117603
   C     3    6     -0.6823164416     0.2424775446     0.7316606595
   C     4    6      0.7935123124    -0.3150804391     5.7801619038
   C     5    6      0.6475064133     2.1688623276     1.9485119153
   C     6    6      1.3748336004     1.8907362361     4.4660861355
   H     7    1     -0.9793171163    -3.9869144110     5.5782768072
   H     8    1      2.4087121374     3.4110283528     5.4047092546
   H     9    1      1.3611935582    -0.5294849704     7.7527429283
   H    10    1      1.0929053802     3.8807008500     0.8894849049
   C    11    6     -1.4619323468     0.5179844759    -2.0257235681
   N    12    7     -1.5327876227     3.1508338712    -2.7791270841
   H    13    1     -1.8073062274     3.2900121902    -4.6780711561
   H    14    1     -3.0376123322     4.0046952208    -1.9320120563
   C    15    6      0.3729462347    -1.0123590933    -3.6324045084
   H    16    1     -3.2754078917    -0.5067912510    -2.2565724949
   O    17    8      1.8634109164     0.4182541869    -5.1020444097
   H    18    1      2.9284151301    -0.7748280955    -6.0075859856
   O    19    8      0.4704466471    -3.2888760870    -3.6088093897
   H    20    1     -2.2610785701    -3.4964813841     1.0912755151
[GTO]
    1  0
  s      9  0
      6665.0000000000         0.0006920002
      1000.0000000000         0.0053290014
       228.0000000000         0.0270770070
        64.7100000000         0.1017180264
        21.0600000000         0.2747400712
         7.4950000000         0.4485641162
         2.7970000000         0.2850740738
         0.5215000000         0.0152040039
         0.1596000000        -0.0031910008
  s      9  0
      6665.0000000000        -0.0001460001
      1000.0000000000        -0.0011540005
       228.0000000000        -0.0057250025
        64.7100000000        -0.0233120103
        21.0600000000        -0.0639550281
         7.4950000000        -0.1499810660
         2.7970000000        -0.1272620560
         0.5215000000         0.5445292395
         0.1596000000         0.5804962554
  s      1  0
         0.1596000000         1.0000000000
  p      4  0
         9.4390000000         0.0381090213
         2.0020000000         0.2094801169
         0.5456000000         0.5085572839
         0.1517000000         0.4688422617
  p      1  0
         0.1517000000         1.0000000000
  d      1  0
         0.5500000000         1.0000000000

    2  0
  s      9  0
      6665.0000000000         0.0006920002
      1000.0000000000         0.0053290014
       228.0000000000         0.0270770070
        64.7100000000         0.1017180264
        21.0600000000         0.2747400712
         7.4950000000         0.4485641162
         2.7970000000         0.2850740738
         0.5215000000         0.0152040039
         0.1596000000        -0.0031910008
  s      9  0
      6665.0000000000        -0.0001460001
      1000.0000000000        -0.0011540005
       228.0000000000        -0.0057250025
        64.7100000000        -0.0233120103
        21.0600000000        -0.0639550281
         7.4950000000        -0.1499810660
         2.7970000000        -0.1272620560
         0.5215000000         0.5445292395
         0.1596000000         0.5804962554
  s      1  0
         0.1596000000         1.0000000000
  p      4  0
         9.4390000000         0.0381090213
         2.0020000000         0.2094801169
         0.5456000000         0.5085572839
         0.1517000000         0.4688422617
  p      1  0
         0.1517000000         1.0000000000
  d      1  0
         0.5500000000         1.0000000000

    3  0
  s      9  0
      6665.0000000000         0.0006920002
      1000.0000000000         0.0053290014
       228.0000000000         0.0270770070
        64.7100000000         0.1017180264
        21.0600000000         0.2747400712
         7.4950000000         0.4485641162
         2.7970000000         0.2850740738
         0.5215000000         0.0152040039
         0.1596000000        -0.0031910008
  s      9  0
      6665.0000000000        -0.0001460001
      1000.0000000000        -0.0011540005
       228.0000000000        -0.0057250025
        64.7100000000        -0.0233120103
        21.0600000000        -0.0639550281
         7.4950000000        -0.1499810660
         2.7970000000        -0.1272620560
         0.5215000000         0.5445292395
         0.1596000000         0.5804962554
  s      1  0
         0.1596000000         1.0000000000
  p      4  0
         9.4390000000         0.0381090213
         2.0020000000         0.2094801169
         0.5456000000         0.5085572839
         0.1517000000         0.4688422617
  p      1  0
         0.1517000000         1.0000000000
  d      1  0
         0.5500000000         1.0000000000

    4  0
  s      9  0
      6665.0000000000         0.0006920002
      1000.0000000000         0.0053290014
       228.0000000000         0.0270770070
        64.7100000000         0.1017180264
        21.0600000000         0.2747400712
         7.4950000000         0.4485641162
         2.7970000000         0.2850740738
         0.5215000000         0.0152040039
         0.1596000000        -0.0031910008
  s      9  0
      6665.0000000000        -0.0001460001
      1000.0000000000        -0.0011540005
       228.0000000000        -0.0057250025
        64.7100000000        -0.0233120103
        21.0600000000        -0.0639550281
         7.4950000000        -0.1499810660
         2.7970000000        -0.1272620560
         0.5215000000         0.5445292395
         0.1596000000         0.5804962554
  s      1  0
         0.1596000000         1.0000000000
  p      4  0
         9.4390000000         0.0381090213
         2.0020000000         0.2094801169
         0.5456000000         0.5085572839
         0.1517000000         0.4688422617
  p      1  0
         0.1517000000         1.0000000000
  d      1  0
         0.5500000000         1.0000000000

    5  0
  s      9  0
      6665.0000000000         0.0006920002
      1000.0000000000         0.0053290014
       228.0000000000         0.0270770070
        64.7100000000         0.1017180264
        21.0600000000         0.2747400712
         7.4950000000         0.4485641162
         2.7970000000         0.2850740738
         0.5215000000         0.0152040039
         0.1596000000        -0.0031910008
  s      9  0
      6665.0000000000        -0.0001460001
      1000.0000000000        -0.0011540005
       228.0000000000        -0.0057250025
        64.7100000000        -0.0233120103
        21.0600000000        -0.0639550281
         7.4950000000        -0.1499810660
         2.7970000000        -0.1272620560
         0.5215000000         0.5445292395
         0.1596000000         0.5804962554
  s      1  0
         0.1596000000         1.0000000000
  p      4  0
         9.4390000000         0.0381090213
         2.0020000000         0.2094801169
         0.5456000000         0.5085572839
         0.1517000000         0.4688422617
  p      1  0
         0.1517000000         1.0000000000
  d      1  0
         0.5500000000         1.0000000000

    6  0
  s      9  0
      6665.0000000000         0.0006920002
      1000.0000000000         0.0053290014
       228.0000000000         0.0270770070
        64.7100000000         0.1017180264
        21.0600000000         0.2747400712
         7.4950000000         0.4485641162
         2.7970000000         0.2850740738
         0.5215000000         0.0152040039
         0.1596000000        -0.0031910008
  s      9  0
      6665.0000000000        -0.0001460001
      1000.0000000000        -0.0011540005
       228.0000000000        -0.0057250025
        64.7100000000        -0.0233120103
        21.0600000000        -0.0639550281
         7.4950000000        -0.1499810660
         2.7970000000        -0.1272620560
         0.5215000000         0.5445292395
         0.1596000000         0.5804962554
  s      1  0
         0.1596000000         1.0000000000
  p      4  0
         9.4390000000         0.0381090213
         2.0020000000         0.2094801169
         0.5456000000         0.5085572839
         0.1517000000         0.4688422617
  p      1  0
         0.1517000000         1.0000000000
  d      1  0
         0.5500000000         1.0000000000

    7  0
  s      4  0
        13.0100000000         0.0196849900
         1.9620000000         0.1379769298
         0.4446000000         0.4781477569
         0.1220000000         0.5012397451
  s      1  0
         0.1220000000         1.0000000000
  p      1  0
         0.7270000000         1.0000000000

    8  0
  s      4  0
        13.0100000000         0.0196849900
         1.9620000000         0.1379769298
         0.4446000000         0.4781477569
         0.1220000000         0.5012397451
  s      1  0
         0.1220000000         1.0000000000
  p      1  0
         0.7270000000         1.0000000000

    9  0
  s      4  0
        13.0100000000         0.0196849900
         1.9620000000         0.1379769298
         0.4446000000         0.4781477569
         0.1220000000         0.5012397451
  s      1  0
         0.1220000000         1.0000000000
  p      1  0
         0.7270000000         1.0000000000

   10  0
  s      4  0
        13.0100000000         0.0196849900
         1.9620000000         0.1379769298
         0.4446000000         0.4781477569
         0.1220000000         0.5012397451
  s      1  0
         0.1220000000         1.0000000000
  p      1  0
         0.7270000000         1.0000000000

   11  0
  s      9  0
      6665.0000000000         0.0006920002
      1000.0000000000         0.0053290014
       228.0000000000         0.0270770070
        64.7100000000         0.1017180264
        21.0600000000         0.2747400712
         7.4950000000         0.4485641162
         2.7970000000         0.2850740738
         0.5215000000         0.0152040039
         0.1596000000        -0.0031910008
  s      9  0
      6665.0000000000        -0.0001460001
      1000.0000000000        -0.0011540005
       228.0000000000        -0.0057250025
        64.7100000000        -0.0233120103
        21.0600000000        -0.0639550281
         7.4950000000        -0.1499810660
         2.7970000000        -0.1272620560
         0.5215000000         0.5445292395
         0.1596000000         0.5804962554
  s      1  0
         0.1596000000         1.0000000000
  p      4  0
         9.4390000000         0.0381090213
         2.0020000000         0.2094801169
         0.5456000000         0.5085572839
         0.1517000000         0.4688422617
  p      1  0
         0.1517000000         1.0000000000
  d      1  0
         0.5500000000         1.0000000000

   12  0
  s      9  0
      9046.0000000000         0.0007000000
      1357.0000000000         0.0053890003
       309.3000000000         0.0274060014
        87.7300000000         0.1032070051
        28.5600000000         0.2787230138
        10.2100000000         0.4485400222
         3.8380000000         0.2782380137
         0.7466000000         0.0154400008
         0.2248000000        -0.0028640001
  s      9  0
      9046.0000000000        -0.0001530000
      1357.0000000000        -0.0012079999
       309.3000000000        -0.0059919996
        87.7300000000        -0.0245439982
        28.5600000000        -0.0674589950
        10.2100000000        -0.1580779882
         3.8380000000        -0.1218309909
         0.7466000000         0.5490029590
         0.2248000000         0.5788149568
  s      1  0
         0.2248000000         1.0000000000
  p      4  0
        13.5500000000         0.0399190123
         2.9170000000         0.2171690671
         0.7973000000         0.5103191576
         0.2185000000         0.4622141427
  p      1  0
         0.2185000000         1.0000000000
  d      1  0
         0.8170000000         1.0000000000

   13  0
  s      4  0
        13.0100000000         0.0196849900
         1.9620000000         0.1379769298
         0.4446000000         0.4781477569
         0.1220000000         0.5012397451
  s      1  0
         0.1220000000         1.0000000000
  p      1  0
         0.7270000000         1.0000000000

   14  0
  s      4  0
        13.0100000000         0.0196849900
         1.9620000000         0.1379769298
         0.4446000000         0.4781477569
         0.1220000000         0.5012397451
  s      1  0
         0.1220000000         1.0000000000
  p      1  0
         0.7270000000         1.0000000000

   15  0
  s      9  0
      6665.0000000000         0.0006920002
      1000.0000000000         0.0053290014
       228.0000000000         0.0270770070
        64.7100000000         0.1017180264
        21.0600000000         0.2747400712
         7.4950000000         0.4485641162
         2.7970000000         0.2850740738
         0.5215000000         0.0152040039
         0.1596000000        -0.0031910008
  s      9  0
      6665.0000000000        -0.0001460001
      1000.0000000000        -0.0011540005
       228.0000000000        -0.0057250025
        64.7100000000        -0.0233120103
        21.0600000000        -0.0639550281
         7.4950000000        -0.1499810660
         2.7970000000        -0.1272620560
         0.5215000000         0.5445292395
         0.1596000000         0.5804962554
  s      1  0
         0.1596000000         1.0000000000
  p      4  0
         9.4390000000         0.0381090213
         2.0020000000         0.2094801169
         0.5456000000         0.5085572839
         0.1517000000         0.4688422617
  p      1  0
         0.1517000000         1.0000000000
  d      1  0
         0.5500000000         1.0000000000

   16  0
  s      4  0
        13.0100000000         0.0196849900
         1.9620000000         0.1379769298
         0.4446000000         0.4781477569
         0.1220000000         0.5012397451
  s      1  0
         0.1220000000         1.0000000000
  p      1  0
         0.7270000000         1.0000000000

   17  0
  s      9  0
     11720.0000000000         0.0007100003
      1759.0000000000         0.0054700019
       400.8000000000         0.0278370098
       113.7000000000         0.1048000369
        37.0300000000         0.2830620998
        13.2700000000         0.4487191582
         5.0250000000         0.2709520955
         1.0130000000         0.0154580054
         0.3023000000        -0.0025850009
  s      9  0
     11720.0000000000        -0.0001600000
      1759.0000000000        -0.0012630001
       400.8000000000        -0.0062670006
       113.7000000000        -0.0257160025
        37.0300000000        -0.0709240068
        13.2700000000        -0.1654110159
         5.0250000000        -0.1169550112
         1.0130000000         0.5573680536
         0.3023000000         0.5727590551
  s      1  0
         0.3023000000         1.0000000000
  p      4  0
        17.7000000000         0.0430179924
         3.8540000000         0.2289129597
         1.0460000000         0.5087279104
         0.2753000000         0.4605309189
  p      1  0
         0.2753000000         1.0000000000
  d      1  0
         1.1850000000         1.0000000000

   18  0
  s      4  0
        13.0100000000         0.0196849900
         1.9620000000         0.1379769298
         0.4446000000         0.4781477569
         0.1220000000         0.5012397451
  s      1  0
         0.1220000000         1.0000000000
  p      1  0
         0.7270000000         1.0000000000

   19  0
  s      9  0
     11720.0000000000         0.0007100003
      1759.0000000000         0.0054700019
       400.8000000000         0.0278370098
       113.7000000000         0.1048000369
        37.0300000000         0.2830620998
        13.2700000000         0.4487191582
         5.0250000000         0.2709520955
         1.0130000000         0.0154580054
         0.3023000000        -0.0025850009
  s      9  0
     11720.0000000000        -0.0001600000
      1759.0000000000        -0.0012630001
       400.8000000000        -0.0062670006
       113.7000000000        -0.0257160025
        37.0300000000        -0.0709240068
        13.2700000000        -0.1654110159
         5.0250000000        -0.1169550112
         1.0130000000         0.5573680536
         0.3023000000         0.5727590551
  s      1  0
         0.3023000000         1.0000000000
  p      4  0
        17.7000000000         0.0430179924
         3.8540000000         0.2289129597
         1.0460000000         0.5087279104
         0.2753000000         0.4605309189
  p      1  0
         0.2753000000         1.0000000000
  d      1  0
         1.1850000000         1.0000000000

   20  0
  s      4  0
        13.0100000000         0.0196849900
         1.9620000000         0.1379769298
         0.4446000000         0.4781477569
         0.1220000000         0.5012397451
  s      1  0
         0.1220000000         1.0000000000
  p      1  0
         0.7270000000         1.0000000000

[5D]
[9G]
[MO]
Sym= a    
Ene=  -0.19269323622167E+02
Spin= Alpha
Occup=       2.00000000000000
     1   -0.0000415880053517
     2   -0.0001684547678869
     3    0.0003631557638351
     4   -0.0001320210082774
     5   -0.0000064303568025
     6    0.0000725127148760
     7    0.0004524427731316
     8   -0.0002933182978158
     9   -0.0000923423469695
    10    0.0000551605805478
    11   -0.0000469224666797
    12    0.0000150452419327
    13    0.0000367260240987
    14   -0.0000185327616703
    15    0.0000367418719580
    16    0.0001271877621028
    17   -0.0004812063062136
    18    0.0000376293305577
    19   -0.0000062679911672
    20   -0.0000171070652586
    21   -0.0002143865083041
    22   -0.0000834843340235
    23    0.0003502607965621
    24   -0.0000291640965255
    25    0.0000044514896271
    26    0.0000025127642610
    27    0.0000132844544139
    28   -0.0000180260436923
    29    0.0000886130133090
    30    0.0003406710939183
    31   -0.0012604827083103
    32    0.0000497112104711
    33    0.0000604024533728
    34   -0.0001403141633348
    35    0.0003419863201021
    36    0.0002528538594296
    37    0.0015213109057832
    38   -0.0000114943345519
    39   -0.0000785243026824
    40   -0.0001079009387897
    41   -0.0000539115639287
    42   -0.0000939906712283
    43    0.0000021470216388
    44    0.0000122961609544
    45    0.0001732056161628
    46   -0.0000100818279677
    47   -0.0000030044550493
    48   -0.0000082292214576
    49    0.0000469369481830
    50    0.0000311275048778
    51   -0.0001465292768054
    52   -0.0000042655785396
    53    0.0000012233455699
    54    0.0000092973083017
    55   -0.0000154572380259
    56   -0.0000036867917151
    57    0.0000330957321585
    58    0.0001519398490142
    59   -0.0004203816233311
    60    0.0000265854790839
    61   -0.0001117602844480
    62   -0.0000365796714638
    63   -0.0000049185827133
    64    0.0005037458959962
    65   -0.0003246258156604
    66    0.0000734498740443
    67    0.0000394224646208
    68    0.0000530949476917
    69   -0.0000060321492158
    70   -0.0000082551421208
    71    0.0000107220245209
    72    0.0000298749586783
    73    0.0000323945283184
    74   -0.0000020629527917
    75   -0.0000033655135808
    76    0.0000124209130105
    77    0.0000558665488065
    78    0.0000501217048354
    79   -0.0000481081877735
    80   -0.0000177758892074
    81   -0.0000263890650328
    82    0.0000327437666230
    83    0.0000068737303524
    84    0.0000049388681081
    85   -0.0000073979031991
    86   -0.0000919955194487
    87    0.0000183207164896
    88   -0.0000070763069659
    89   -0.0000170878550888
    90   -0.0000255667039060
    91   -0.0000055893421451
    92   -0.0000026994142746
    93    0.0000037019586884
    94    0.0000034212428638
    95    0.0000166122868737
    96    0.0000165406823355
    97   -0.0000054025410252
    98    0.0000011244152780
    99    0.0000056861821683
   100    0.0000274845185371
   101   -0.0002824971866669
   102    0.0000006614786602
   103   -0.0000275718161679
   104   -0.0000333983068250
   105   -0.0001214802869090
   106   -0.0005773792856324
   107    0.0005228043206710
   108   -0.0002317347686874
   109    0.0001791597404375
   110    0.0003773527054529
   111   -0.0003903830174232
   112   -0.0035343851401747
   113    0.0017134399890284
   114   -0.0000692999981183
   115    0.0001931291430339
   116    0.0000205484347573
   117   -0.0001474634115747
   118    0.0000145896347759
   119   -0.0002511078925928
   120   -0.0009208017741480
   121    0.0030760473234947
   122   -0.0000626961770093
   123    0.0001145580740727
   124   -0.0000558360439060
   125    0.0000685254892627
   126   -0.0010937057255168
   127    0.0002544840635350
   128    0.0000590128424957
   129    0.0000333711262001
   130   -0.0000154261993899
   131   -0.0000494528297061
   132    0.0000283070867490
   133   -0.0003500268964334
   134    0.0002046045062633
   135   -0.0000825124421513
   136    0.0000948148557963
   137   -0.0000552795476583
   138   -0.0001317697089656
   139    0.0003551293011688
   140    0.0000092212175719
   141    0.0000016981065554
   142   -0.0000119621628762
   143    0.0000547801300130
   144    0.0001346010938813
   145    0.0052100703635813
   146    0.0004801070764227
   147    0.0002825752252008
   148   -0.0004762043168424
   149    0.0034629162979208
   150    0.0040146489332636
   151   -0.0035199122743755
   152   -0.0000984189342650
   153   -0.0002312659403468
   154    0.0002711793237940
   155   -0.0001174798450668
   156   -0.0003422437015601
   157   -0.0004098308793295
   158    0.0000498353818889
   159    0.0000386773809301
   160    0.0001248506500099
   161   -0.0002085874924341
   162    1.0033306610178065
   163    0.0169033792008993
   164   -0.0209716890870535
   165   -0.0001560811878682
   166   -0.0023960316807621
   167    0.0002626982611787
   168    0.0020520045908090
   169    0.0036781805745448
   170   -0.0021028227037130
   171    0.0000045466148724
   172   -0.0000458066867909
   173    0.0002113768918719
   174    0.0000430952728360
   175   -0.0002311676496071
   176    0.0004480652918585
   177   -0.0005998700900331
   178    0.0004462245921686
   179   -0.0007271723105617
   180   -0.0003635441993482
   181   -0.0004866427386625
   182   -0.0007213108007461
   183    0.0014356049429605
   184    0.0000614148264890
   185   -0.0001307697496367
   186   -0.0000538127635012
   187   -0.0009618722912653
   188   -0.0001373198072328
   189    0.0009144954965936
   190    0.0000261213183737
   191   -0.0000268444490700
   192    0.0001647084354962
   193    0.0000685432974633
   194   -0.0001746960812575
   195   -0.0000547345672123
   196    0.0000098238984146
   197   -0.0000168287384070
   198    0.0000048183286571
   199    0.0000305942225654
Sym= a    
Ene=  -0.19205207047261E+02
Spin= Alpha
Occup=       2.00000000000000
     1    0.0001447296907621
     2    0.0005237056216084
     3   -0.0030811777823943
     4    0.0000962120917191
     5   -0.0000011289871455
     6   -0.0000027437317880
     7   -0.0007429859611013
     8   -0.0007059548327245
     9   -0.0009208612689568
    10   -0.0000236908004169
    11    0.0000057156189034
    12   -0.0000371609107579
    13    0.0000516144622087
    14   -0.0000069596877970
    15   -0.0000507483173100
    16   -0.0001715927366120
    17    0.0016018288231195
    18   -0.0000458294071990
    19    0.0000064987441198
    20   -0.0000464682021969
    21   -0.0000643379768751
    22    0.0002121870797470
    23   -0.0007544301378338
    24    0.0000255086935828
    25    0.0000135218048275
    26   -0.0000101703009986
    27   -0.0000088177128727
    28    0.0000215063263281
    29    0.0003342575720190
    30    0.0011621611071824
    31   -0.0044644250739393
    32    0.0001093216937616
    33   -0.0000612219899490
    34   -0.0000899026599592
    35   -0.0009973990438292
    36   -0.0022493668428519
    37    0.0026231420989365
    38   -0.0001543713394485
    39   -0.0000530152560820
    40   -0.0000587028495680
    41    0.0000805096553761
    42   -0.0000451827367027
    43   -0.0000038139791847
    44   -0.0000166424605744
    45    0.0003990763876799
    46    0.0000091830476326
    47    0.0000681163718499
    48   -0.0000185086613864
    49    0.0001011166781165
    50    0.0000576853704139
    51    0.0001231134903425
    52   -0.0000072798897968
    53   -0.0000155765340397
    54   -0.0000107266569843
    55    0.0000044575456162
    56    0.0000024189587371
    57   -0.0000780365153903
    58   -0.0002627577072227
    59    0.0020089295687505
    60   -0.0000692127436369
    61   -0.0000301103640072
    62   -0.0000342770022977
    63   -0.0005176834058766
    64   -0.0009968174373193
    65   -0.0012226476505577
    66    0.0000240535869683
    67    0.0000383887030159
    68    0.0000527515273517
    69   -0.0000425068511489
    70    0.0000234074979124
    71    0.0000296396830153
    72    0.0000945500351169
    73    0.0000050939952819
    74   -0.0000176392161328
    75   -0.0000560217378262
    76    0.0000344721584785
    77    0.0002027420634987
    78    0.0007587168018435
    79   -0.0001688667430065
    80   -0.0000198106132911
    81   -0.0000191550389358
    82   -0.0000210507422590
    83    0.0000056002454823
    84   -0.0000338979715737
    85   -0.0000632731182917
    86    0.0001535554167807
    87    0.0000067766711215
    88    0.0000048969139021
    89    0.0000408942110359
    90   -0.0000965088715179
    91   -0.0001192882829907
    92   -0.0000065808868061
    93   -0.0000260517265089
    94   -0.0000101883927895
    95   -0.0000620564396644
    96   -0.0000035023000399
    97   -0.0000090114261008
    98   -0.0000090055644138
    99   -0.0000079011638797
   100   -0.0001805379335722
   101    0.0002092479813649
   102    0.0000008687950483
   103    0.0000372163627271
   104    0.0000853512196987
   105   -0.0003763027497588
   106   -0.0013904034905178
   107    0.0059150718929620
   108   -0.0002819408283295
   109    0.0000800936278792
   110    0.0002312053584289
   111    0.0023265744856802
   112    0.0031264157050915
   113    0.0004183099487829
   114    0.0002367856142570
   115   -0.0000870149764215
   116   -0.0002886700263832
   117    0.0002105424482424
   118    0.0003155148828855
   119    0.0000728210304942
   120    0.0002331580932309
   121   -0.0022355560184500
   122   -0.0000187217166178
   123    0.0001279001000166
   124    0.0000529881057909
   125   -0.0000097852152781
   126    0.0003578775668828
   127   -0.0006620070774838
   128    0.0000479506944885
   129   -0.0000206693468744
   130   -0.0000483251873840
   131   -0.0000180312835052
   132    0.0000914589029367
   133   -0.0001063701640956
   134    0.0001797273400442
   135    0.0000388313302159
   136   -0.0000956239569865
   137   -0.0000102969314656
   138    0.0003377649826794
   139   -0.0002501214217426
   140    0.0001033760563390
   141    0.0000404237559645
   142   -0.0000195231322632
   143    0.0003281165924882
   144    0.0006412035567463
   145    0.0047012252470660
   146    0.0000144497720260
   147    0.0000015856090342
   148   -0.0001260941821444
   149   -0.0001572342377894
   150   -0.0074133537737246
   151    0.0005898056931018
   152    0.0004379574614185
   153   -0.0003586911719661
   154    0.0000240801462610
   155    0.0008439567445555
   156    0.0000038611612977
   157    0.0001869000268248
   158    0.0003432504493789
   159   -0.0001545388474305
   160   -0.0000517604716676
   161    0.0000189219407164
   162    0.0001368454298041
   163   -0.0006665623132039
   164    0.0015342832394690
   165    0.0001259673353750
   166    0.0000476226613562
   167   -0.0000943338834079
   168   -0.0007554317076566
   169    0.0009806593462316
   170    0.0005583225373465
   171    0.0000824584013334
   172   -0.0000423297199489
   173    0.0001024827624458
   174    0.0001732432319007
   175   -0.0000908370648970
   176    0.0004602951726641
   177   -0.0002699845206396
   178    0.0000493126413608
   179    0.0001616461937989
   180   -0.0000394755340414
   181    1.0035088874232447
   182    0.0174961412824142
   183   -0.0228226741762258
   184   -0.0000806993785218
   185    0.0027423302610872
   186   -0.0000601468493153
   187    0.0001995431883376
   188   -0.0048461247151194
   189    0.0000054834306407
   190   -0.0000493665808789
   191   -0.0000016356622278
   192   -0.0000124017843978
   193   -0.0000741849500827
   194   -0.0000118760222535
   195   -0.0000473364909903
   196   -0.0003862115337914
   197   -0.0000008760547587
   198   -0.0000060858312812
   199    0.0000704952751012
Sym= a    
Ene=  -0.14386638778282E+02
Spin= Alpha
Occup=       2.00000000000000
     1    0.0000091113752185
     2    0.0000215437404464
     3   -0.0030651291922475
     4   -0.0000152291798360
     5    0.0000038697954600
     6    0.0001260154517542
     7   -0.0007586005885274
     8    0.0001532818875035
     9   -0.0022513442053622
    10   -0.0000862390983865
    11   -0.0000036707242008
    12   -0.0000305612755724
    13   -0.0001045823344273
    14    0.0000028642378920
    15   -0.0001151895550234
    16   -0.0003831275088356
    17    0.0038155640159859
    18   -0.0000012688342840
    19    0.0000422460608630
    20   -0.0000573570559084
    21   -0.0001954721153342
    22    0.0004795592608605
    23   -0.0013050885809137
    24    0.0000547100449740
    25    0.0000715148361728
    26    0.0000089850562213
    27   -0.0000151224791977
    28    0.0000480233484504
    29    0.0000928614991140
    30    0.0002414242419634
    31   -0.0044187967343834
    32    0.0000555724227967
    33   -0.0000992143389313
    34    0.0001497226367463
    35   -0.0003075923908890
    36   -0.0029009558861715
    37    0.0018101598448954
    38   -0.0001195101976508
    39    0.0000169375015636