[Molden Format]
[Atoms] AU
   C     1    6     -1.2535938360    -1.9731184626     2.0519744132
   C     2    6     -0.5195978059    -2.2499689891     4.5628117603
   C     3    6     -0.6823164416     0.2424775446     0.7316606595
   C     4    6      0.7935123124    -0.3150804391     5.7801619038
   C     5    6      0.6475064133     2.1688623276     1.9485119153
   C     6    6      1.3748336004     1.8907362361     4.4660861355
   H     7    1     -0.9793171163    -3.9869144110     5.5782768072
   H     8    1      2.4087121374     3.4110283528     5.4047092546
   H     9    1      1.3611935582    -0.5294849704     7.7527429283
   H    10    1      1.0929053802     3.8807008500     0.8894849049
   C    11    6     -1.4619323468     0.5179844759    -2.0257235681
   N    12    7     -1.5327876227     3.1508338712    -2.7791270841
   H    13    1     -1.8073062274     3.2900121902    -4.6780711561
   H    14    1     -3.0376123322     4.0046952208    -1.9320120563
   C    15    6      0.3729462347    -1.0123590933    -3.6324045084
   H    16    1     -3.2754078917    -0.5067912510    -2.2565724949
   O    17    8      1.8634109164     0.4182541869    -5.1020444097
   H    18    1      2.9284151301    -0.7748280955    -6.0075859856
   O    19    8      0.4704466471    -3.2888760870    -3.6088093897
   H    20    1     -2.2610785701    -3.4964813841     1.0912755151
[GTO]
    1  0
  s      9  0
      6665.0000000000         0.0006920002
      1000.0000000000         0.0053290014
       228.0000000000         0.0270770070
        64.7100000000         0.1017180264
        21.0600000000         0.2747400712
         7.4950000000         0.4485641162
         2.7970000000         0.2850740738
         0.5215000000         0.0152040039
         0.1596000000        -0.0031910008
  s      9  0
      6665.0000000000        -0.0001460001
      1000.0000000000        -0.0011540005
       228.0000000000        -0.0057250025
        64.7100000000        -0.0233120103
        21.0600000000        -0.0639550281
         7.4950000000        -0.1499810660
         2.7970000000        -0.1272620560
         0.5215000000         0.5445292395
         0.1596000000         0.5804962554
  s      1  0
         0.1596000000         1.0000000000
  p      4  0
         9.4390000000         0.0381090213
         2.0020000000         0.2094801169
         0.5456000000         0.5085572839
         0.1517000000         0.4688422617
  p      1  0
         0.1517000000         1.0000000000
  d      1  0
         0.5500000000         1.0000000000

    2  0
  s      9  0
      6665.0000000000         0.0006920002
      1000.0000000000         0.0053290014
       228.0000000000         0.0270770070
        64.7100000000         0.1017180264
        21.0600000000         0.2747400712
         7.4950000000         0.4485641162
         2.7970000000         0.2850740738
         0.5215000000         0.0152040039
         0.1596000000        -0.0031910008
  s      9  0
      6665.0000000000        -0.0001460001
      1000.0000000000        -0.0011540005
       228.0000000000        -0.0057250025
        64.7100000000        -0.0233120103
        21.0600000000        -0.0639550281
         7.4950000000        -0.1499810660
         2.7970000000        -0.1272620560
         0.5215000000         0.5445292395
         0.1596000000         0.5804962554
  s      1  0
         0.1596000000         1.0000000000
  p      4  0
         9.4390000000         0.0381090213
         2.0020000000         0.2094801169
         0.5456000000         0.5085572839
         0.1517000000         0.4688422617
  p      1  0
         0.1517000000         1.0000000000
  d      1  0
         0.5500000000         1.0000000000

    3  0
  s      9  0
      6665.0000000000         0.0006920002
      1000.0000000000         0.0053290014
       228.0000000000         0.0270770070
        64.7100000000         0.1017180264
        21.0600000000         0.2747400712
         7.4950000000         0.4485641162
         2.7970000000         0.2850740738
         0.5215000000         0.0152040039
         0.1596000000        -0.0031910008
  s      9  0
      6665.0000000000        -0.0001460001
      1000.0000000000        -0.0011540005
       228.0000000000        -0.0057250025
        64.7100000000        -0.0233120103
        21.0600000000        -0.0639550281
         7.4950000000        -0.1499810660
         2.7970000000        -0.1272620560
         0.5215000000         0.5445292395
         0.1596000000         0.5804962554
  s      1  0
         0.1596000000         1.0000000000
  p      4  0
         9.4390000000         0.0381090213
         2.0020000000         0.2094801169
         0.5456000000         0.5085572839
         0.1517000000         0.4688422617
  p      1  0
         0.1517000000         1.0000000000
  d      1  0
         0.5500000000         1.0000000000

    4  0
  s      9  0
      6665.0000000000         0.0006920002
      1000.0000000000         0.0053290014
       228.0000000000         0.0270770070
        64.7100000000         0.1017180264
        21.0600000000         0.2747400712
         7.4950000000         0.4485641162
         2.7970000000         0.2850740738
         0.5215000000         0.0152040039
         0.1596000000        -0.0031910008
  s      9  0
      6665.0000000000        -0.0001460001
      1000.0000000000        -0.0011540005
       228.0000000000        -0.0057250025
        64.7100000000        -0.0233120103
        21.0600000000        -0.0639550281
         7.4950000000        -0.1499810660
         2.7970000000        -0.1272620560
         0.5215000000         0.5445292395
         0.1596000000         0.5804962554
  s      1  0
         0.1596000000         1.0000000000
  p      4  0
         9.4390000000         0.0381090213
         2.0020000000         0.2094801169
         0.5456000000         0.5085572839
         0.1517000000         0.4688422617
  p      1  0
         0.1517000000         1.0000000000
  d      1  0
         0.5500000000         1.0000000000

    5  0
  s      9  0
      6665.0000000000         0.0006920002
      1000.0000000000         0.0053290014
       228.0000000000         0.0270770070
        64.7100000000         0.1017180264
        21.0600000000         0.2747400712
         7.4950000000         0.4485641162
         2.7970000000         0.2850740738
         0.5215000000         0.0152040039
         0.1596000000        -0.0031910008
  s      9  0
      6665.0000000000        -0.0001460001
      1000.0000000000        -0.0011540005
       228.0000000000        -0.0057250025
        64.7100000000        -0.0233120103
        21.0600000000        -0.0639550281
         7.4950000000        -0.1499810660
         2.7970000000        -0.1272620560
         0.5215000000         0.5445292395
         0.1596000000         0.5804962554
  s      1  0
         0.1596000000         1.0000000000
  p      4  0
         9.4390000000         0.0381090213
         2.0020000000         0.2094801169
         0.5456000000         0.5085572839
         0.1517000000         0.4688422617
  p      1  0
         0.1517000000         1.0000000000
  d      1  0
         0.5500000000         1.0000000000

    6  0
  s      9  0
      6665.0000000000         0.0006920002
      1000.0000000000         0.0053290014
       228.0000000000         0.0270770070
        64.7100000000         0.1017180264
        21.0600000000         0.2747400712
         7.4950000000         0.4485641162
         2.7970000000         0.2850740738
         0.5215000000         0.0152040039
         0.1596000000        -0.0031910008
  s      9  0
      6665.0000000000        -0.0001460001
      1000.0000000000        -0.0011540005
       228.0000000000        -0.0057250025
        64.7100000000        -0.0233120103
        21.0600000000        -0.0639550281
         7.4950000000        -0.1499810660
         2.7970000000        -0.1272620560
         0.5215000000         0.5445292395
         0.1596000000         0.5804962554
  s      1  0
         0.1596000000         1.0000000000
  p      4  0
         9.4390000000         0.0381090213
         2.0020000000         0.2094801169
         0.5456000000         0.5085572839
         0.1517000000         0.4688422617
  p      1  0
         0.1517000000         1.0000000000
  d      1  0
         0.5500000000         1.0000000000

    7  0
  s      4  0
        13.0100000000         0.0196849900
         1.9620000000         0.1379769298
         0.4446000000         0.4781477569
         0.1220000000         0.5012397451
  s      1  0
         0.1220000000         1.0000000000
  p      1  0
         0.7270000000         1.0000000000

    8  0
  s      4  0
        13.0100000000         0.0196849900
         1.9620000000         0.1379769298
         0.4446000000         0.4781477569
         0.1220000000         0.5012397451
  s      1  0
         0.1220000000         1.0000000000
  p      1  0
         0.7270000000         1.0000000000

    9  0
  s      4  0
        13.0100000000         0.0196849900
         1.9620000000         0.1379769298
         0.4446000000         0.4781477569
         0.1220000000         0.5012397451
  s      1  0
         0.1220000000         1.0000000000
  p      1  0
         0.7270000000         1.0000000000

   10  0
  s      4  0
        13.0100000000         0.0196849900
         1.9620000000         0.1379769298
         0.4446000000         0.4781477569
         0.1220000000         0.5012397451
  s      1  0
         0.1220000000         1.0000000000
  p      1  0
         0.7270000000         1.0000000000

   11  0
  s      9  0
      6665.0000000000         0.0006920002
      1000.0000000000         0.0053290014
       228.0000000000         0.0270770070
        64.7100000000         0.1017180264
        21.0600000000         0.2747400712
         7.4950000000         0.4485641162
         2.7970000000         0.2850740738
         0.5215000000         0.0152040039
         0.1596000000        -0.0031910008
  s      9  0
      6665.0000000000        -0.0001460001
      1000.0000000000        -0.0011540005
       228.0000000000        -0.0057250025
        64.7100000000        -0.0233120103
        21.0600000000        -0.0639550281
         7.4950000000        -0.1499810660
         2.7970000000        -0.1272620560
         0.5215000000         0.5445292395
         0.1596000000         0.5804962554
  s      1  0
         0.1596000000         1.0000000000
  p      4  0
         9.4390000000         0.0381090213
         2.0020000000         0.2094801169
         0.5456000000         0.5085572839
         0.1517000000         0.4688422617
  p      1  0
         0.1517000000         1.0000000000
  d      1  0
         0.5500000000         1.0000000000

   12  0
  s      9  0
      9046.0000000000         0.0007000000
      1357.0000000000         0.0053890003
       309.3000000000         0.0274060014
        87.7300000000         0.1032070051
        28.5600000000         0.2787230138
        10.2100000000         0.4485400222
         3.8380000000         0.2782380137
         0.7466000000         0.0154400008
         0.2248000000        -0.0028640001
  s      9  0
      9046.0000000000        -0.0001530000
      1357.0000000000        -0.0012079999
       309.3000000000        -0.0059919996
        87.7300000000        -0.0245439982
        28.5600000000        -0.0674589950
        10.2100000000        -0.1580779882
         3.8380000000        -0.1218309909
         0.7466000000         0.5490029590
         0.2248000000         0.5788149568
  s      1  0
         0.2248000000         1.0000000000
  p      4  0
        13.5500000000         0.0399190123
         2.9170000000         0.2171690671
         0.7973000000         0.5103191576
         0.2185000000         0.4622141427
  p      1  0
         0.2185000000         1.0000000000
  d      1  0
         0.8170000000         1.0000000000

   13  0
  s      4  0
        13.0100000000         0.0196849900
         1.9620000000         0.1379769298
         0.4446000000         0.4781477569
         0.1220000000         0.5012397451
  s      1  0
         0.1220000000         1.0000000000
  p      1  0
         0.7270000000         1.0000000000

   14  0
  s      4  0
        13.0100000000         0.0196849900
         1.9620000000         0.1379769298
         0.4446000000         0.4781477569
         0.1220000000         0.5012397451
  s      1  0
         0.1220000000         1.0000000000
  p      1  0
         0.7270000000         1.0000000000

   15  0
  s      9  0
      6665.0000000000         0.0006920002
      1000.0000000000         0.0053290014
       228.0000000000         0.0270770070
        64.7100000000         0.1017180264
        21.0600000000         0.2747400712
         7.4950000000         0.4485641162
         2.7970000000         0.2850740738
         0.5215000000         0.0152040039
         0.1596000000        -0.0031910008
  s      9  0
      6665.0000000000        -0.0001460001
      1000.0000000000        -0.0011540005
       228.0000000000        -0.0057250025
        64.7100000000        -0.0233120103
        21.0600000000        -0.0639550281
         7.4950000000        -0.1499810660
         2.7970000000        -0.1272620560
         0.5215000000         0.5445292395
         0.1596000000         0.5804962554
  s      1  0
         0.1596000000         1.0000000000
  p      4  0
         9.4390000000         0.0381090213
         2.0020000000         0.2094801169
         0.5456000000         0.5085572839
         0.1517000000         0.4688422617
  p      1  0
         0.1517000000         1.0000000000
  d      1  0
         0.5500000000         1.0000000000

   16  0
  s      4  0
        13.0100000000         0.0196849900
         1.9620000000         0.1379769298
         0.4446000000         0.4781477569
         0.1220000000         0.5012397451
  s      1  0
         0.1220000000         1.0000000000
  p      1  0
         0.7270000000         1.0000000000

   17  0
  s      9  0
     11720.0000000000         0.0007100003
      1759.0000000000         0.0054700019
       400.8000000000         0.0278370098
       113.7000000000         0.1048000369
        37.0300000000         0.2830620998
        13.2700000000         0.4487191582
         5.0250000000         0.2709520955
         1.0130000000         0.0154580054
         0.3023000000        -0.0025850009
  s      9  0
     11720.0000000000        -0.0001600000
      1759.0000000000        -0.0012630001
       400.8000000000        -0.0062670006
       113.7000000000        -0.0257160025
        37.0300000000        -0.0709240068
        13.2700000000        -0.1654110159
         5.0250000000        -0.1169550112
         1.0130000000         0.5573680536
         0.3023000000         0.5727590551
  s      1  0
         0.3023000000         1.0000000000
  p      4  0
        17.7000000000         0.0430179924
         3.8540000000         0.2289129597
         1.0460000000         0.5087279104
         0.2753000000         0.4605309189
  p      1  0
         0.2753000000         1.0000000000
  d      1  0
         1.1850000000         1.0000000000

   18  0
  s      4  0
        13.0100000000         0.0196849900
         1.9620000000         0.1379769298
         0.4446000000         0.4781477569
         0.1220000000         0.5012397451
  s      1  0
         0.1220000000         1.0000000000
  p      1  0
         0.7270000000         1.0000000000

   19  0
  s      9  0
     11720.0000000000         0.0007100003
      1759.0000000000         0.0054700019
       400.8000000000         0.0278370098
       113.7000000000         0.1048000369
        37.0300000000         0.2830620998
        13.2700000000         0.4487191582
         5.0250000000         0.2709520955
         1.0130000000         0.0154580054
         0.3023000000        -0.0025850009
  s      9  0
     11720.0000000000        -0.0001600000
      1759.0000000000        -0.0012630001
       400.8000000000        -0.0062670006
       113.7000000000        -0.0257160025
        37.0300000000        -0.0709240068
        13.2700000000        -0.1654110159
         5.0250000000        -0.1169550112
         1.0130000000         0.5573680536
         0.3023000000         0.5727590551
  s      1  0
         0.3023000000         1.0000000000
  p      4  0
        17.7000000000         0.0430179924
         3.8540000000         0.2289129597
         1.0460000000         0.5087279104
         0.2753000000         0.4605309189
  p      1  0
         0.2753000000         1.0000000000
  d      1  0
         1.1850000000         1.0000000000

   20  0
  s      4  0
        13.0100000000         0.0196849900
         1.9620000000         0.1379769298
         0.4446000000         0.4781477569
         0.1220000000         0.5012397451
  s      1  0
         0.1220000000         1.0000000000
  p      1  0
         0.7270000000         1.0000000000

[5D]
[9G]
[MO]
Sym= a    
Ene=  -0.19269323622167E+02
Spin= Alpha
Occup=       2.00000000000000
     1    0.0000005815971057
     2    0.0000005373304399
     3   -0.0000017461951127
     4   -0.0000005054515772
     5   -0.0000008569785475
     6    0.0000000452474874
     7    0.0000005665194634
     8    0.0000014816902482
     9    0.0000023765345075
    10   -0.0000000452019584
    11    0.0000008178407450
    12   -0.0000001018658802
    13    0.0000009197746668
    14   -0.0000000249712602
    15    0.0000000433501165
    16    0.0000005901342317
    17   -0.0000016350360737
    18    0.0000013518583302
    19    0.0000005760005545
    20   -0.0000001913537340
    21    0.0000017401788581
    22   -0.0000005328953212
    23   -0.0000001939376039
    24   -0.0000000541035720
    25   -0.0000001060266488
    26    0.0000001404489427
    27   -0.0000000311252404
    28    0.0000003407612018
    29   -0.0000003940388975
    30    0.0000012201617837
    31   -0.0000030309628687
    32    0.0000032962466828
    33    0.0000009936593515
    34    0.0000004865031245
    35   -0.0000032685349183
    36   -0.0000005251025228
    37   -0.0000028732989077
    38    0.0000004242024079
    39   -0.0000003549968493
    40    0.0000004548445559
    41   -0.0000000155126579
    42   -0.0000003855774195
    43    0.0000003156709289
    44    0.0000004841356731
    45   -0.0000009239252939
    46    0.0000003931354259
    47    0.0000001145039333
    48    0.0000002225927070
    49    0.0000005102911991
    50    0.0000013536010193
    51   -0.0000001441713318
    52    0.0000001574586950
    53    0.0000002869845857
    54   -0.0000002338149309
    55   -0.0000000646933783
    56    0.0000003784720387
    57    0.0000001206201385
    58    0.0000006233167815
    59   -0.0000014866658626
    60    0.0000000570067464
    61    0.0000010460804590
    62   -0.0000001817625954
    63   -0.0000001323119633
    64    0.0000004699033638
    65   -0.0000024505651927
    66    0.0000007214279982
    67    0.0000004154395252
    68   -0.0000008454024685
    69   -0.0000007736236530
    70    0.0000006559467358
    71    0.0000002380253064
    72    0.0000005623088753
    73    0.0000007816000590
    74   -0.0000003762292388
    75    0.0000007531105787
    76   -0.0000003044325114
    77   -0.0000001972764707
    78   -0.0000001008508298
    79    0.0000024778077153
    80    0.0000005976678885
    81    0.0000000004476791
    82    0.0000001373643813
    83   -0.0000001405156214
    84    0.0000005524258900
    85   -0.0000002404706047
    86    0.0000000604623943
    87    0.0000000502703272
    88    0.0000000630928666
    89    0.0000000660100823
    90    0.0000002189950526
    91   -0.0000001437096520
    92   -0.0000000092220677
    93    0.0000002145797410
    94   -0.0000003173354873
    95    0.0000001254992132
    96   -0.0000001432531634
    97    0.0000000258718088
    98    0.0000001198002477
    99   -0.0000000608236864
   100   -0.0000001014399270
   101    0.0000000380285588
   102   -0.0000001881915931
   103    0.0000011194214334
   104   -0.0000004910082549
   105   -0.0000015080957723
   106   -0.0000047902945191
   107    0.0000156804523391
   108   -0.0000001828874835
   109   -0.0000058110205434
   110    0.0000029520174583
   111    0.0000022202780430
   112   -0.0000061840992981
   113    0.0000092503395673
   114   -0.0000019158423467
   115    0.0000014845022263
   116    0.0000009220155212
   117    0.0000026852394782
   118   -0.0000025533391873
   119   -0.0000004036863705
   120   -0.0000004102479731
   121    0.0000010116705714
   122    0.0000000163066115
   123    0.0000002574408041
   124   -0.0000004834814696
   125    0.0000011473687108
   126   -0.0000007717416592
   127   -0.0000007618022276
   128   -0.0000001501938099
   129    0.0000001700218185
   130    0.0000000737912421
   131    0.0000000731549848
   132    0.0000004899796651
   133    0.0000010517738610
   134   -0.0000007429956046
   135   -0.0000000335415250
   136    0.0000002609401264
   137   -0.0000001922004294
   138    0.0000003223751735
   139    0.0000001944145207
   140   -0.0000002001909235
   141   -0.0000000488713879
   142    0.0000000503753008
   143   -0.0000024948637959
   144   -0.0000063276178722
   145   -0.0000031671391104
   146   -0.0000009653224387
   147   -0.0000199177270329
   148    0.0000199291125646
   149    0.0000000867899872
   150    0.0000283316271610
   151   -0.0000196464286448
   152   -0.0000044749015895
   153    0.0000208306381581
   154   -0.0000350432065045
   155    0.0000036240888104
   156    0.0000270833294526
   157   -0.0000022442804656
   158    0.0000009460180049
   159   -0.0000000347899655
   160   -0.0000013026452588
   161    0.0000002196432104
   162    0.0000000847639364
   163    0.0000001535811219
   164   -0.0000003762403267
   165    0.0000189100581810
   166    0.0000052404610961
   167   -0.0000048012054315
   168    0.0000011900022970
   169    0.0000243109465665
   170   -0.0000329304687142
   171    0.0000043055069578
   172    0.0000003694577414
   173    0.0000028904040286
   174   -0.0000032051031411
   175   -0.0000041670902856
   176   -0.0000049387589837
   177   -0.0000061108657996
   178   -0.0000004434789219
   179   -0.0000009245688614
   180    0.0000045757229532
   181   -0.0000019736688162
   182   -0.0000031371914050
   183    0.0000045301361158
   184    0.0000003605125749
   185    0.0000173221604088
   186   -0.0000071218136247
   187   -0.0000019152765202
   188   -0.0000036458575279
   189    0.0000042201562088
   190    0.0000039715227638
   191   -0.0000020365563194
   192    0.0000087583579478
   193   -0.0000049326932315
   194   -0.0000096096716804
   195   -0.0000002397198905
   196    0.0000001585999812
   197    0.0000000174148232
   198   -0.0000001851974592
   199    0.0000002452013336
